
Host: MacOSWork.local

Timers On : Thu Mar 11 11:06:28 2021
Timers Off: Thu Mar 11 11:06:30 2021

Wall Time:        1.23 seconds

                                                       Time (seconds)
Module                                       User      System        Wall        Calls

--------------------------------------------------------------------------------------

**************************************************************************************
